<?xml version="1.0" encoding="UTF-8"?>

<!-- generated on 2025-12-13T17:47:36.928595+00:00 by Eclipse SUMO GUI 1.25.0
<sumoConfiguration xmlns:xsi="http://www.w3.org/2001/XMLSchema-instance" xsi:noNamespaceSchemaLocation="http://sumo.dlr.de/xsd/sumoConfiguration.xsd">

    <input>
        <net-file value="C:\Users\Zaidane Ayman\Documents\SumoProject\ENSAM_MAP\osm.net.xml.gz"/>
        <route-files value="C:\Users\Zaidane Ayman\Documents\SumoProject\ENSAM_MAP\osm.passenger.trips.xml"/>
        <additional-files value="C:\Users\Zaidane Ayman\Documents\SumoProject\ENSAM_MAP\osm.poly.xml.gz,C:\Users\Zaidane Ayman\Documents\SumoProject\ENSAM_MAP\output.add.xml"/>
    </input>

    <output>
        <tripinfo-output value="C:\Users\Zaidane Ayman\Documents\SumoProject\ENSAM_MAP\tripinfos.xml"/>
        <statistic-output value="C:\Users\Zaidane Ayman\Documents\SumoProject\ENSAM_MAP\stats.xml"/>
    </output>

    <processing>
        <ignore-route-errors value="true"/>
        <tls.actuated.jam-threshold value="30"/>
    </processing>

    <routing>
        <device.rerouting.adaptation-steps value="18"/>
        <device.rerouting.adaptation-interval value="10"/>
    </routing>

    <report>
        <verbose value="true"/>
        <duration-log.statistics value="true"/>
        <no-step-log value="true"/>
    </report>

    <gui_only>
        <gui-settings-file value="C:\Users\Zaidane Ayman\Documents\SumoProject\ENSAM_MAP\osm.view.xml"/>
    </gui_only>

</sumoConfiguration>
-->

<meandata xmlns:xsi="http://www.w3.org/2001/XMLSchema-instance" xsi:noNamespaceSchemaLocation="http://sumo.dlr.de/xsd/meandata_file.xsd">
    <interval begin="0.00" end="1198.00" id="wizard_example">
        <edge id="-1037929949#0" sampledSeconds="414.56" traveltime="9.45" overlapTraveltime="10.35" density="8.29" overlapDensity="9.11" laneDensity="8.29" occupancy="4.28" waitingTime="131.00" timeLoss="278.94" speed="4.15" speedRelative="0.30" departed="8" arrived="0" entered="33" left="41" laneChangedFrom="0" laneChangedTo="0" flow="124.00"/>
        <edge id="-1037929949#1" sampledSeconds="169.89" traveltime="4.77" overlapTraveltime="5.15" density="2.15" overlapDensity="2.32" laneDensity="2.15" occupancy="1.07" waitingTime="0.00" timeLoss="15.89" speed="12.84" speedRelative="0.92" departed="0" arrived="0" entered="33" left="33" laneChangedFrom="0" laneChangedTo="0" flow="99.39"/>
        <edge id="-1037929950#0" sampledSeconds="1469.62" traveltime="40.20" overlapTraveltime="41.09" density="14.72" overlapDensity="15.05" laneDensity="14.72" occupancy="7.40" waitingTime="946.00" timeLoss="1254.12" speed="2.10" speedRelative="0.15" departed="4" arrived="0" entered="32" left="36" laneChangedFrom="0" laneChangedTo="0" flow="111.54"/>
        <edge id="-1037929950#1" sampledSeconds="32.77" traveltime="7.56" overlapTraveltime="8.19" density="0.30" overlapDensity="0.32" laneDensity="0.30" occupancy="0.15" waitingTime="0.00" timeLoss="6.60" speed="11.04" speedRelative="0.79" departed="0" arrived="0" entered="4" left="4" laneChangedFrom="0" laneChangedTo="0" flow="11.74"/>
        <edge id="-1037929950#2" sampledSeconds="22.30" traveltime="4.90" overlapTraveltime="5.57" density="0.46" overlapDensity="0.52" laneDensity="0.46" occupancy="0.22" waitingTime="0.00" timeLoss="10.52" speed="7.30" speedRelative="0.53" departed="0" arrived="0" entered="4" left="4" laneChangedFrom="0" laneChangedTo="0" flow="12.04"/>
        <edge id="-1055263759" sampledSeconds="0.00" departed="0" arrived="0" entered="0" left="0" laneChangedFrom="0" laneChangedTo="0"/>
        <edge id="-1055637852" sampledSeconds="23.03" traveltime="2.62" overlapTraveltime="3.06" density="0.70" overlapDensity="0.77" laneDensity="0.70" occupancy="0.32" waitingTime="0.00" timeLoss="7.34" speed="9.79" speedRelative="0.70" departed="0" arrived="8" entered="8" left="0" laneChangedFrom="0" laneChangedTo="0" flow="24.64"/>
        <edge id="-1056657591" sampledSeconds="0.00" departed="0" arrived="0" entered="0" left="0" laneChangedFrom="0" laneChangedTo="0"/>
        <edge id="-1059564770" sampledSeconds="0.00" departed="0" arrived="0" entered="0" left="0" laneChangedFrom="0" laneChangedTo="0"/>
        <edge id="-1061042636" sampledSeconds="0.00" departed="0" arrived="0" entered="0" left="0" laneChangedFrom="0" laneChangedTo="0"/>
        <edge id="-1238501350" sampledSeconds="0.00" departed="0" arrived="0" entered="0" left="0" laneChangedFrom="0" laneChangedTo="0"/>
        <edge id="-1238501351" sampledSeconds="31.25" traveltime="8.23" overlapTraveltime="9.54" density="0.92" overlapDensity="1.13" laneDensity="0.92" occupancy="0.52" waitingTime="0.00" timeLoss="23.50" speed="2.95" speedRelative="0.21" departed="4" arrived="0" entered="0" left="4" laneChangedFrom="0" laneChangedTo="0" flow="9.83"/>
        <edge id="-1238501352#0" sampledSeconds="0.00" departed="0" arrived="0" entered="0" left="0" laneChangedFrom="0" laneChangedTo="0"/>
        <edge id="-1238501352#1" sampledSeconds="0.00" departed="0" arrived="0" entered="0" left="0" laneChangedFrom="0" laneChangedTo="0"/>
        <edge id="-1238501353" sampledSeconds="21.36" traveltime="5.62" overlapTraveltime="6.47" density="0.61" overlapDensity="0.74" laneDensity="0.61" occupancy="0.34" waitingTime="0.00" timeLoss="12.09" speed="4.50" speedRelative="0.32" departed="4" arrived="0" entered="0" left="4" laneChangedFrom="0" laneChangedTo="0" flow="9.93"/>
        <edge id="-1238501354" sampledSeconds="18.37" traveltime="5.09" overlapTraveltime="5.51" density="0.53" overlapDensity="0.60" laneDensity="0.53" occupancy="0.28" waitingTime="0.00" timeLoss="11.01" speed="5.57" speedRelative="0.40" departed="4" arrived="0" entered="0" left="4" laneChangedFrom="0" laneChangedTo="0" flow="10.62"/>
        <edge id="-1238501355" sampledSeconds="0.00" departed="0" arrived="0" entered="0" left="0" laneChangedFrom="0" laneChangedTo="0"/>
        <edge id="-1238501356" sampledSeconds="54.68" traveltime="6.92" overlapTraveltime="7.81" density="1.10" overlapDensity="1.27" laneDensity="1.10" occupancy="0.59" waitingTime="0.00" timeLoss="29.32" speed="5.24" speedRelative="0.38" departed="8" arrived="0" entered="0" left="8" laneChangedFrom="0" laneChangedTo="0" flow="20.84"/>
        <edge id="-1335332791" sampledSeconds="0.00" departed="0" arrived="0" entered="0" left="0" laneChangedFrom="0" laneChangedTo="0"/>
        <edge id="-1436590698" sampledSeconds="0.00" departed="0" arrived="0" entered="0" left="0" laneChangedFrom="0" laneChangedTo="0"/>
        <edge id="-147036281#0" sampledSeconds="182.20" traveltime="14.17" overlapTraveltime="15.18" density="4.00" overlapDensity="4.29" laneDensity="4.00" occupancy="2.04" waitingTime="91.00" timeLoss="140.98" speed="2.66" speedRelative="0.19" departed="0" arrived="0" entered="12" left="12" laneChangedFrom="0" laneChangedTo="0" flow="38.40"/>
        <edge id="-147036281#1" sampledSeconds="53.33" traveltime="4.21" overlapTraveltime="4.65" density="1.18" overlapDensity="1.31" laneDensity="1.18" occupancy="0.59" waitingTime="0.00" timeLoss="20.53" speed="8.42" speedRelative="0.61" departed="4" arrived="0" entered="8" left="12" laneChangedFrom="0" laneChangedTo="0" flow="35.64"/>
        <edge id="-147036281#3" sampledSeconds="10.27" traveltime="0.03" overlapTraveltime="1.31" density="0.48" overlapDensity="42.86" laneDensity="0.48" occupancy="0.84" waitingTime="0.00" timeLoss="7.36" speed="3.97" speedRelative="0.29" departed="4" arrived="0" entered="4" left="8" laneChangedFrom="0" laneChangedTo="0" flow="6.84"/>
        <edge id="-147036281#4" sampledSeconds="10.33" traveltime="2.02" overlapTraveltime="2.58" density="0.37" overlapDensity="0.48" laneDensity="0.37" occupancy="0.18" waitingTime="0.00" timeLoss="4.13" speed="8.93" speedRelative="0.64" departed="0" arrived="0" entered="4" left="4" laneChangedFrom="0" laneChangedTo="0" flow="12.02"/>
        <edge id="-147036281#5" sampledSeconds="0.00" departed="0" arrived="0" entered="0" left="0" laneChangedFrom="0" laneChangedTo="0"/>
        <edge id="-147036283#0" sampledSeconds="26.90" traveltime="7.41" overlapTraveltime="8.97" density="0.16" overlapDensity="0.19" laneDensity="0.16" occupancy="0.09" waitingTime="0.00" timeLoss="9.11" speed="13.61" speedRelative="0.61" departed="0" arrived="0" entered="3" left="3" laneChangedFrom="0" laneChangedTo="0" flow="7.77"/>
        <edge id="-147036283#1" sampledSeconds="11.51" traveltime="2.60" overlapTraveltime="2.88" density="0.16" overlapDensity="0.18" laneDensity="0.16" occupancy="0.08" waitingTime="0.00" timeLoss="0.98" speed="20.52" speedRelative="0.92" departed="0" arrived="0" entered="4" left="4" laneChangedFrom="0" laneChangedTo="0" flow="11.87"/>
        <edge id="-147036283#2" sampledSeconds="29.29" traveltime="5.57" overlapTraveltime="5.86" density="0.19" overlapDensity="0.20" laneDensity="0.19" occupancy="0.10" waitingTime="0.00" timeLoss="1.60" speed="21.25" speedRelative="0.96" departed="0" arrived="0" entered="5" left="5" laneChangedFrom="0" laneChangedTo="0" flow="14.89"/>
        <edge id="-147036283#3" sampledSeconds="15.08" traveltime="2.78" overlapTraveltime="3.02" density="0.23" overlapDensity="0.25" laneDensity="0.23" occupancy="0.11" waitingTime="0.00" timeLoss="3.00" speed="18.20" speedRelative="0.82" departed="0" arrived="0" entered="5" left="5" laneChangedFrom="0" laneChangedTo="0" flow="15.21"/>
        <edge id="-147036283#4" sampledSeconds="2.84" traveltime="0.13" overlapTraveltime="0.51" density="0.41" overlapDensity="1.46" laneDensity="0.41" occupancy="0.18" waitingTime="0.00" timeLoss="1.23" speed="12.94" speedRelative="0.58" departed="0" arrived="1" entered="6" left="5" laneChangedFrom="0" laneChangedTo="0" flow="19.13"/>
        <edge id="-147036284" sampledSeconds="0.00" departed="0" arrived="0" entered="0" left="0" laneChangedFrom="0" laneChangedTo="0"/>
        <edge id="-147036285#0" sampledSeconds="681.47" traveltime="6.44" overlapTraveltime="7.32" density="22.73" overlapDensity="25.82" laneDensity="22.73" occupancy="11.59" waitingTime="229.00" timeLoss="483.97" speed="3.69" speedRelative="0.27" departed="0" arrived="0" entered="94" left="93" laneChangedFrom="0" laneChangedTo="0" flow="302.37"/>
        <edge id="-147036285#1" sampledSeconds="967.89" traveltime="11.35" overlapTraveltime="12.48" density="18.25" overlapDensity="19.99" laneDensity="18.25" occupancy="9.33" waitingTime="250.00" timeLoss="707.21" speed="3.64" speedRelative="0.26" departed="0" arrived="0" entered="79" left="75" laneChangedFrom="0" laneChangedTo="0" flow="239.06"/>
        <edge id="-147036285#2" sampledSeconds="788.93" traveltime="9.27" overlapTraveltime="9.81" density="9.08" overlapDensity="9.60" laneDensity="9.08" occupancy="4.48" waitingTime="91.00" timeLoss="351.78" speed="7.51" speedRelative="0.54" departed="0" arrived="0" entered="82" left="80" laneChangedFrom="0" laneChangedTo="0" flow="245.29"/>
        <edge id="-147036285#3" sampledSeconds="0.00" departed="0" arrived="0" entered="0" left="0" laneChangedFrom="0" laneChangedTo="0"/>
        <edge id="-147036285#4" sampledSeconds="0.00" departed="0" arrived="0" entered="0" left="0" laneChangedFrom="0" laneChangedTo="0"/>
        <edge id="-147036288#0" sampledSeconds="298.89" traveltime="5.67" overlapTraveltime="6.57" density="7.68" overlapDensity="8.83" laneDensity="7.68" occupancy="3.90" waitingTime="39.00" timeLoss="191.14" speed="5.06" speedRelative="0.36" departed="0" arrived="4" entered="47" left="41" laneChangedFrom="0" laneChangedTo="0" flow="139.86"/>
        <edge id="-147036288#1" sampledSeconds="0.00" departed="0" arrived="0" entered="0" left="0" laneChangedFrom="0" laneChangedTo="0"/>
        <edge id="-147036290#0" sampledSeconds="156.13" traveltime="4.07" overlapTraveltime="4.88" density="5.18" overlapDensity="6.20" laneDensity="5.18" occupancy="2.69" waitingTime="31.00" timeLoss="87.89" speed="5.33" speedRelative="0.38" departed="0" arrived="0" entered="32" left="32" laneChangedFrom="0" laneChangedTo="0" flow="99.37"/>
        <edge id="-147036290#1" sampledSeconds="96.46" traveltime="2.57" overlapTraveltime="3.01" density="2.48" overlapDensity="2.91" laneDensity="2.48" occupancy="1.24" waitingTime="3.00" timeLoss="20.97" speed="10.83" speedRelative="0.78" departed="0" arrived="0" entered="32" left="32" laneChangedFrom="0" laneChangedTo="0" flow="96.74"/>
        <edge id="-147036290#2" sampledSeconds="125.28" traveltime="4.83" overlapTraveltime="5.22" density="1.67" overlapDensity="1.80" laneDensity="1.67" occupancy="0.82" waitingTime="0.00" timeLoss="16.83" speed="12.07" speedRelative="0.87" departed="0" arrived="0" entered="24" left="24" laneChangedFrom="0" laneChangedTo="0" flow="72.44"/>
        <edge id="-147036292#0" sampledSeconds="66.07" traveltime="3.02" overlapTraveltime="3.89" density="1.59" overlapDensity="2.05" laneDensity="1.59" occupancy="0.84" waitingTime="0.00" timeLoss="18.43" speed="8.22" speedRelative="0.59" departed="0" arrived="0" entered="17" left="17" laneChangedFrom="0" laneChangedTo="0" flow="47.10"/>
        <edge id="-147036292#1" sampledSeconds="16.01" traveltime="0.82" overlapTraveltime="1.23" density="0.92" overlapDensity="1.37" laneDensity="0.92" occupancy="0.45" waitingTime="0.00" timeLoss="1.53" speed="11.99" speedRelative="0.86" departed="0" arrived="0" entered="13" left="13" laneChangedFrom="0" laneChangedTo="0" flow="39.54"/>
        <edge id="-147036296#0" sampledSeconds="0.00" departed="0" arrived="0" entered="0" left="0" laneChangedFrom="0" laneChangedTo="0"/>
        <edge id="-147036296#1" sampledSeconds="13.75" traveltime="2.69" overlapTraveltime="3.44" density="0.45" overlapDensity="0.57" laneDensity="0.45" occupancy="0.22" waitingTime="0.00" timeLoss="3.96" speed="7.29" speedRelative="0.52" departed="0" arrived="0" entered="4" left="4" laneChangedFrom="0" laneChangedTo="0" flow="11.73"/>
        <edge id="-147036296#2" sampledSeconds="29.21" traveltime="1.98" overlapTraveltime="2.75" density="1.67" overlapDensity="2.48" laneDensity="1.67" occupancy="0.92" waitingTime="0.00" timeLoss="12.90" speed="5.39" speedRelative="0.39" departed="4" arrived="0" entered="8" left="12" laneChangedFrom="0" laneChangedTo="0" flow="32.35"/>
        <edge id="-147036297#0" sampledSeconds="0.00" departed="0" arrived="0" entered="0" left="0" laneChangedFrom="0" laneChangedTo="0"/>
        <edge id="-147036297#1" sampledSeconds="0.00" departed="0" arrived="0" entered="0" left="0" laneChangedFrom="0" laneChangedTo="0"/>
        <edge id="-147036297#10" sampledSeconds="0.00" departed="0" arrived="0" entered="0" left="0" laneChangedFrom="0" laneChangedTo="0"/>
        <edge id="-147036297#3" sampledSeconds="12.02" traveltime="2.41" overlapTraveltime="3.00" density="0.32" overlapDensity="0.40" laneDensity="0.32" occupancy="0.17" waitingTime="0.00" timeLoss="2.36" speed="10.02" speedRelative="0.72" departed="0" arrived="0" entered="4" left="4" laneChangedFrom="0" laneChangedTo="0" flow="11.55"/>
        <edge id="-147036297#4" sampledSeconds="8.95" traveltime="1.86" overlapTraveltime="2.24" density="0.24" overlapDensity="0.29" laneDensity="0.24" occupancy="0.12" waitingTime="0.00" timeLoss="0.65" speed="13.81" speedRelative="0.99" departed="0" arrived="0" entered="4" left="4" laneChangedFrom="0" laneChangedTo="0" flow="11.93"/>
        <edge id="-147036297#5" sampledSeconds="8.47" traveltime="1.78" overlapTraveltime="2.12" density="0.24" overlapDensity="0.28" laneDensity="0.24" occupancy="0.12" waitingTime="0.00" timeLoss="0.35" speed="14.28" speedRelative="1.03" departed="0" arrived="0" entered="4" left="4" laneChangedFrom="0" laneChangedTo="0" flow="12.09"/>
        <edge id="-147036297#6" sampledSeconds="9.53" traveltime="1.92" overlapTraveltime="2.38" density="0.38" overlapDensity="0.47" laneDensity="0.38" occupancy="0.18" waitingTime="0.00" timeLoss="3.65" speed="9.19" speedRelative="0.66" departed="0" arrived="0" entered="4" left="4" laneChangedFrom="0" laneChangedTo="0" flow="12.59"/>
        <edge id="-147036297#7" sampledSeconds="17.01" traveltime="4.66" overlapTraveltime="5.32" density="0.57" overlapDensity="0.69" laneDensity="0.57" occupancy="0.32" waitingTime="0.00" timeLoss="9.28" speed="4.78" speedRelative="0.34" departed="4" arrived="0" entered="0" left="4" laneChangedFrom="0" laneChangedTo="0" flow="9.83"/>
        <edge id="-147036297#8" sampledSeconds="0.00" departed="0" arrived="0" entered="0" left="0" laneChangedFrom="0" laneChangedTo="0"/>
        <edge id="-147036297#9" sampledSeconds="0.00" departed="0" arrived="0" entered="0" left="0" laneChangedFrom="0" laneChangedTo="0"/>
        <edge id="-147036301#0" sampledSeconds="2112.66" traveltime="97.18" overlapTraveltime="100.05" density="72.54" overlapDensity="73.11" laneDensity="72.54" occupancy="36.30" waitingTime="1991.00" timeLoss="2060.45" speed="0.29" speedRelative="0.02" departed="0" arrived="0" entered="22" left="21" laneChangedFrom="0" laneChangedTo="0" teleported="2" flow="76.00"/>
        <edge id="-147036301#1" sampledSeconds="1814.20" traveltime="68.60" overlapTraveltime="69.67" density="42.97" overlapDensity="43.39" laneDensity="42.97" occupancy="21.49" waitingTime="1646.00" timeLoss="1736.08" speed="0.57" speedRelative="0.04" departed="0" arrived="0" entered="27" left="25" laneChangedFrom="0" laneChangedTo="0" flow="88.58"/>
        <edge id="-147036305#0" sampledSeconds="3.81" traveltime="0.04" overlapTraveltime="0.95" density="0.60" overlapDensity="15.91" laneDensity="0.60" occupancy="0.31" waitingTime="0.00" timeLoss="0.71" speed="5.46" speedRelative="0.39" departed="0" arrived="0" entered="4" left="4" laneChangedFrom="0" laneChangedTo="0" flow="11.79"/>
        <edge id="-147036305#1" sampledSeconds="0.00" departed="0" arrived="0" entered="0" left="0" laneChangedFrom="0" laneChangedTo="0"/>
        <edge id="-147036307" sampledSeconds="109.04" traveltime="4.72" overlapTraveltime="5.45" density="2.30" overlapDensity="2.66" laneDensity="2.30" occupancy="1.14" waitingTime="0.00" timeLoss="51.98" speed="7.20" speedRelative="0.52" departed="0" arrived="0" entered="20" left="20" laneChangedFrom="0" laneChangedTo="0" flow="59.59"/>
        <edge id="-147036309#0" sampledSeconds="10.67" traveltime="2.26" overlapTraveltime="2.67" density="0.29" overlapDensity="0.34" laneDensity="0.29" occupancy="0.14" waitingTime="0.00" timeLoss="1.03" speed="11.61" speedRelative="0.84" departed="0" arrived="4" entered="4" left="0" laneChangedFrom="0" laneChangedTo="0" flow="12.16"/>
        <edge id="-147036309#1" sampledSeconds="42.93" traveltime="10.29" overlapTraveltime="10.73" density="0.31" overlapDensity="0.33" laneDensity="0.31" occupancy="0.15" waitingTime="0.00" timeLoss="7.33" speed="10.66" speedRelative="0.77" departed="0" arrived="0" entered="4" left="4" laneChangedFrom="0" laneChangedTo="0" flow="12.06"/>
        <edge id="-147036309#2" sampledSeconds="49.80" traveltime="1.97" overlapTraveltime="2.49" density="1.55" overlapDensity="1.96" laneDensity="1.55" occupancy="0.79" waitingTime="0.00" timeLoss="9.76" speed="10.52" speedRelative="0.76" departed="0" arrived="0" entered="20" left="20" laneChangedFrom="0" laneChangedTo="0" flow="58.84"/>
        <edge id="-147036310#0" sampledSeconds="0.00" departed="0" arrived="0" entered="0" left="0" laneChangedFrom="0" laneChangedTo="0"/>
        <edge id="-147036310#1" sampledSeconds="0.00" departed="0" arrived="0" entered="0" left="0" laneChangedFrom="0" laneChangedTo="0"/>
        <edge id="-147036310#2" sampledSeconds="14.39" traveltime="2.85" overlapTraveltime="3.60" density="0.36" overlapDensity="0.45" laneDensity="0.36" occupancy="0.19" waitingTime="0.00" timeLoss="3.24" speed="8.73" speedRelative="0.63" departed="0" arrived="0" entered="4" left="4" laneChangedFrom="0" laneChangedTo="0" flow="11.34"/>
        <edge id="-147036310#3" sampledSeconds="25.84" traveltime="3.03" overlapTraveltime="3.74" density="1.20" overlapDensity="1.58" laneDensity="1.20" occupancy="0.65" waitingTime="0.00" timeLoss="14.66" speed="4.99" speedRelative="0.36" departed="4" arrived="0" entered="4" left="8" laneChangedFrom="0" laneChangedTo="0" flow="21.65"/>
        <edge id="-147036310#4" sampledSeconds="0.00" departed="0" arrived="0" entered="0" left="0" laneChangedFrom="0" laneChangedTo="0"/>
        <edge id="-147036310#5" sampledSeconds="0.00" departed="0" arrived="0" entered="0" left="0" laneChangedFrom="0" laneChangedTo="0"/>
        <edge id="-147036310#6" sampledSeconds="15.71" traveltime="4.44" overlapTraveltime="5.18" density="0.63" overlapDensity="0.82" laneDensity="0.63" occupancy="0.36" waitingTime="0.00" timeLoss="9.97" speed="4.07" speedRelative="0.29" departed="4" arrived="0" entered="0" left="4" laneChangedFrom="0" laneChangedTo="0" flow="9.22"/>
        <edge id="-147036310#7" sampledSeconds="56.63" traveltime="2.69" overlapTraveltime="3.54" density="1.46" overlapDensity="1.92" laneDensity="1.46" occupancy="0.79" waitingTime="0.00" timeLoss="15.94" speed="8.35" speedRelative="0.60" departed="0" arrived="0" entered="16" left="16" laneChangedFrom="0" laneChangedTo="0" flow="44.03"/>
        <edge id="-147036310#8" sampledSeconds="43.34" traveltime="2.39" overlapTraveltime="2.87" density="1.64" overlapDensity="2.00" laneDensity="1.64" occupancy="0.82" waitingTime="0.00" timeLoss="18.83" speed="8.05" speedRelative="0.58" departed="4" arrived="0" entered="12" left="16" laneChangedFrom="0" laneChangedTo="0" flow="47.53"/>
        <edge id="-147036311#0" sampledSeconds="0.00" departed="0" arrived="0" entered="0" left="0" laneChangedFrom="0" laneChangedTo="0"/>
        <edge id="-147036311#1" sampledSeconds="346.28" traveltime="5.51" overlapTraveltime="6.66" density="4.94" overlapDensity="5.97" laneDensity="4.94" occupancy="2.63" waitingTime="2.00" timeLoss="125.11" speed="8.02" speedRelative="0.58" departed="0" arrived="0" entered="52" left="52" laneChangedFrom="0" laneChangedTo="0" flow="142.59"/>
        <edge id="-147036311#2" sampledSeconds="244.14" traveltime="4.74" overlapTraveltime="5.12" density="3.34" overlapDensity="3.61" laneDensity="3.34" occupancy="1.66" waitingTime="0.00" timeLoss="34.55" speed="12.00" speedRelative="0.86" departed="4" arrived="0" entered="44" left="48" laneChangedFrom="0" laneChangedTo="0" flow="144.27"/>
        <edge id="-147036316#0" sampledSeconds="0.00" departed="0" arrived="0" entered="0" left="0" laneChangedFrom="0" laneChangedTo="0"/>
        <edge id="-147036316#1" sampledSeconds="21.20" traveltime="5.64" overlapTraveltime="6.32" density="0.57" overlapDensity="0.67" laneDensity="0.57" occupancy="0.31" waitingTime="0.00" timeLoss="11.59" speed="4.99" speedRelative="0.36" departed="4" arrived="0" entered="0" left="4" laneChangedFrom="0" laneChangedTo="0" flow="10.31"/>
        <edge id="-147036316#2" sampledSeconds="18.60" traveltime="3.96" overlapTraveltime="4.65" density="0.39" overlapDensity="0.46" laneDensity="0.39" occupancy="0.20" waitingTime="0.00" timeLoss="6.23" speed="8.35" speedRelative="0.60" departed="0" arrived="0" entered="4" left="4" laneChangedFrom="0" laneChangedTo="0" flow="11.74"/>
        <edge id="-147036318#0" sampledSeconds="79.83" traveltime="17.45" overlapTraveltime="19.96" density="2.37" overlapDensity="2.71" laneDensity="2.37" occupancy="1.27" waitingTime="30.00" timeLoss="70.02" speed="1.48" speedRelative="0.11" departed="0" arrived="0" entered="4" left="4" laneChangedFrom="0" laneChangedTo="0" flow="12.65"/>
        <edge id="-147036318#1" sampledSeconds="256.73" traveltime="5.39" overlapTraveltime="6.14" density="6.24" overlapDensity="7.13" laneDensity="6.24" occupancy="3.21" waitingTime="53.00" timeLoss="142.06" speed="5.71" speedRelative="0.41" departed="8" arrived="0" entered="35" left="43" laneChangedFrom="0" laneChangedTo="0" flow="128.28"/>
        <edge id="-147036318#2" sampledSeconds="635.16" traveltime="18.26" overlapTraveltime="19.16" density="10.74" overlapDensity="11.23" laneDensity="10.74" occupancy="5.43" waitingTime="387.00" timeLoss="498.39" speed="2.73" speedRelative="0.20" departed="0" arrived="0" entered="34" left="32" laneChangedFrom="0" laneChangedTo="0" flow="105.39"/>
        <edge id="-147036318#3" sampledSeconds="217.76" traveltime="5.18" overlapTraveltime="5.73" density="7.62" overlapDensity="8.43" laneDensity="7.62" occupancy="3.71" waitingTime="78.00" timeLoss="143.44" speed="4.63" speedRelative="0.33" departed="0" arrived="0" entered="38" left="38" laneChangedFrom="0" laneChangedTo="0" flow="127.07"/>
        <edge id="-147036319#0" sampledSeconds="81.48" traveltime="7.34" overlapTraveltime="8.15" density="0.76" overlapDensity="0.85" laneDensity="0.76" occupancy="0.39" waitingTime="0.00" timeLoss="19.40" speed="10.44" speedRelative="0.75" departed="0" arrived="0" entered="10" left="10" laneChangedFrom="0" laneChangedTo="0" flow="28.76"/>
        <edge id="-147036319#1" sampledSeconds="25.04" traveltime="1.43" overlapTraveltime="1.81" density="0.96" overlapDensity="1.20" laneDensity="0.96" occupancy="0.47" waitingTime="0.00" timeLoss="3.89" speed="12.40" speedRelative="0.89" departed="0" arrived="4" entered="14" left="10" laneChangedFrom="0" laneChangedTo="0" flow="42.79"/>
        <edge id="-147036319#2" sampledSeconds="24.64" traveltime="2.11" overlapTraveltime="2.46" density="0.60" overlapDensity="0.70" laneDensity="0.60" occupancy="0.30" waitingTime="0.00" timeLoss="1.45" speed="13.94" speedRelative="1.00" departed="0" arrived="0" entered="10" left="10" laneChangedFrom="0" laneChangedTo="0" flow="30.06"/>
        <edge id="-147036319#3" sampledSeconds="14.49" traveltime="1.05" overlapTraveltime="1.45" density="0.75" overlapDensity="1.03" laneDensity="0.75" occupancy="0.36" waitingTime="0.00" timeLoss="3.22" speed="11.52" speedRelative="0.83" departed="0" arrived="0" entered="10" left="10" laneChangedFrom="0" laneChangedTo="0" flow="30.95"/>
        <edge id="-147036319#4" sampledSeconds="15.72" traveltime="1.27" overlapTraveltime="1.63" density="0.61" overlapDensity="0.75" laneDensity="0.61" occupancy="0.30" waitingTime="0.00" timeLoss="1.08" speed="13.76" speedRelative="0.99" departed="0" arrived="4" entered="10" left="6" laneChangedFrom="0" laneChangedTo="0" flow="30.19"/>
        <edge id="-147036319#5" sampledSeconds="24.48" traveltime="2.06" overlapTraveltime="2.45" density="0.73" overlapDensity="0.87" laneDensity="0.73" occupancy="0.36" waitingTime="0.00" timeLoss="5.20" speed="11.65" speedRelative="0.84" departed="0" arrived="0" entered="10" left="10" laneChangedFrom="0" laneChangedTo="0" flow="30.69"/>
        <edge id="-147036319#7" sampledSeconds="4.58" traveltime="1.04" overlapTraveltime="1.53" density="0.29" overlapDensity="0.42" laneDensity="0.29" occupancy="0.13" waitingTime="0.00" timeLoss="1.67" speed="9.21" speedRelative="0.66" departed="0" arrived="0" entered="3" left="3" laneChangedFrom="0" laneChangedTo="0" flow="9.52"/>
        <edge id="-147036319#8" sampledSeconds="0.00" departed="0" arrived="0" entered="0" left="0" laneChangedFrom="0" laneChangedTo="0"/>
        <edge id="-147036320#0" sampledSeconds="3934.28" traveltime="418.10" overlapTraveltime="453.90" density="103.35" overlapDensity="103.43" laneDensity="103.35" occupancy="51.66" waitingTime="3840.00" timeLoss="3912.45" speed="0.08" speedRelative="0.01" departed="0" arrived="0" entered="11" left="7" laneChangedFrom="0" laneChangedTo="0" teleported="3" flow="30.13"/>
        <edge id="-147036320#1" sampledSeconds="139.41" traveltime="12.12" overlapTraveltime="12.83" density="2.01" overlapDensity="2.08" laneDensity="2.01" occupancy="0.99" waitingTime="63.00" timeLoss="91.24" speed="4.76" speedRelative="0.34" departed="0" arrived="0" entered="12" left="8" laneChangedFrom="0" laneChangedTo="0" flow="34.40"/>
        <edge id="-147036320#2" sampledSeconds="64.14" traveltime="3.78" overlapTraveltime="4.58" density="2.20" overlapDensity="2.66" laneDensity="2.20" occupancy="1.13" waitingTime="7.00" timeLoss="36.21" speed="5.48" speedRelative="0.39" departed="0" arrived="0" entered="14" left="14" laneChangedFrom="0" laneChangedTo="0" flow="43.37"/>
        <edge id="-147036320#3" sampledSeconds="53.49" traveltime="3.32" overlapTraveltime="3.82" density="1.04" overlapDensity="1.20" laneDensity="1.04" occupancy="0.52" waitingTime="0.00" timeLoss="12.11" speed="11.02" speedRelative="0.79" departed="0" arrived="0" entered="14" left="14" laneChangedFrom="0" laneChangedTo="0" flow="41.44"/>
        <edge id="-147036320#4" sampledSeconds="70.40" traveltime="5.60" overlapTraveltime="6.04" density="1.01" overlapDensity="1.09" laneDensity="1.01" occupancy="0.51" waitingTime="0.00" timeLoss="23.21" speed="9.72" speedRelative="0.70" departed="4" arrived="0" entered="8" left="12" laneChangedFrom="0" laneChangedTo="0" flow="35.38"/>
        <edge id="-147036320#5" sampledSeconds="0.00" departed="0" arrived="0" entered="0" left="0" laneChangedFrom="0" laneChangedTo="0"/>
        <edge id="-147036320#6" sampledSeconds="0.00" departed="0" arrived="0" entered="0" left="0" laneChangedFrom="0" laneChangedTo="0"/>
        <edge id="-147036321#0" sampledSeconds="0.00" departed="0" arrived="0" entered="0" left="0" laneChangedFrom="0" laneChangedTo="0"/>
        <edge id="-147036321#1" sampledSeconds="12.61" traveltime="2.42" overlapTraveltime="3.15" density="0.42" overlapDensity="0.55" laneDensity="0.42" occupancy="0.22" waitingTime="0.00" timeLoss="4.65" speed="7.64" speedRelative="0.55" departed="0" arrived="0" entered="4" left="4" laneChangedFrom="0" laneChangedTo="0" flow="11.65"/>
        <edge id="-147036323#0" sampledSeconds="9271.15" traveltime="646.57" overlapTraveltime="731.33" density="95.42" overlapDensity="105.29" laneDensity="95.42" occupancy="48.71" waitingTime="8825.00" timeLoss="9194.35" speed="0.11" speedRelative="0.01" departed="3" arrived="0" entered="16" left="9" laneChangedFrom="0" laneChangedTo="0" flow="36.87"/>