<?xml version="1.0" encoding="UTF-8"?>

<!-- generated on 2025-12-13T17:47:36.855278+00:00 by Eclipse SUMO GUI 1.25.0
<sumoConfiguration xmlns:xsi="http://www.w3.org/2001/XMLSchema-instance" xsi:noNamespaceSchemaLocation="http://sumo.dlr.de/xsd/sumoConfiguration.xsd">

    <input>
        <net-file value="C:\Users\Zaidane Ayman\Documents\SumoProject\ENSAM_MAP\osm.net.xml.gz"/>
        <route-files value="C:\Users\Zaidane Ayman\Documents\SumoProject\ENSAM_MAP\osm.passenger.trips.xml"/>
        <additional-files value="C:\Users\Zaidane Ayman\Documents\SumoProject\ENSAM_MAP\osm.poly.xml.gz,C:\Users\Zaidane Ayman\Documents\SumoProject\ENSAM_MAP\output.add.xml"/>
    </input>

    <output>
        <tripinfo-output value="C:\Users\Zaidane Ayman\Documents\SumoProject\ENSAM_MAP\tripinfos.xml"/>
        <statistic-output value="C:\Users\Zaidane Ayman\Documents\SumoProject\ENSAM_MAP\stats.xml"/>
    </output>

    <processing>
        <ignore-route-errors value="true"/>
        <tls.actuated.jam-threshold value="30"/>
    </processing>

    <routing>
        <device.rerouting.adaptation-steps value="18"/>
        <device.rerouting.adaptation-interval value="10"/>
    </routing>

    <report>
        <verbose value="true"/>
        <duration-log.statistics value="true"/>
        <no-step-log value="true"/>
    </report>

    <gui_only>
        <gui-settings-file value="C:\Users\Zaidane Ayman\Documents\SumoProject\ENSAM_MAP\osm.view.xml"/>
    </gui_only>

</sumoConfiguration>
-->

<tripinfos xmlns:xsi="http://www.w3.org/2001/XMLSchema-instance" xsi:noNamespaceSchemaLocation="http://sumo.dlr.de/xsd/tripinfo_file.xsd">
    <tripinfo id="veh2" depart="12.00" departLane="331335305#6_0" departPos="5.10" departSpeed="0.00" departDelay="0.33" arrival="77.00" arrivalLane="288826040#17_0" arrivalPos="107.62" arrivalSpeed="14.01" duration="65.00" routeLength="724.62" waitingTime="0.00" waitingCount="0" stopTime="0.00" timeLoss="13.78" rerouteNo="1" devices="tripinfo_veh2 routing_veh2" vType="veh_passenger" speedFactor="1.01" vaporized=""/>
    <tripinfo id="veh2.1" depart="15.00" departLane="331335305#6_0" departPos="5.10" departSpeed="0.00" departDelay="3.33" arrival="79.00" arrivalLane="288826040#17_0" arrivalPos="107.62" arrivalSpeed="14.96" duration="64.00" routeLength="724.62" waitingTime="0.00" waitingCount="0" stopTime="0.00" timeLoss="15.83" rerouteNo="1" devices="tripinfo_veh2.1 routing_veh2.1" vType="veh_passenger" speedFactor="1.08" vaporized=""/>
    <tripinfo id="veh2.2" depart="18.00" departLane="331335305#6_0" departPos="5.10" departSpeed="0.00" departDelay="6.33" arrival="83.00" arrivalLane="288826040#17_0" arrivalPos="107.62" arrivalSpeed="13.76" duration="65.00" routeLength="724.62" waitingTime="0.00" waitingCount="0" stopTime="0.00" timeLoss="14.26" rerouteNo="1" devices="tripinfo_veh2.2 routing_veh2.2" vType="veh_passenger" speedFactor="1.03" vaporized=""/>
    <tripinfo id="veh2.3" depart="21.00" departLane="331335305#6_0" departPos="5.10" departSpeed="0.00" departDelay="9.33" arrival="94.00" arrivalLane="288826040#17_0" arrivalPos="107.62" arrivalSpeed="11.41" duration="73.00" routeLength="724.62" waitingTime="0.00" waitingCount="0" stopTime="0.00" timeLoss="10.50" rerouteNo="1" devices="tripinfo_veh2.3 routing_veh2.3" vType="veh_passenger" speedFactor="0.83" vaporized=""/>
    <tripinfo id="veh6" depart="35.00" departLane="-295320415#0_0" departPos="5.10" departSpeed="0.00" departDelay="0.00" arrival="94.00" arrivalLane="149812836#0_0" arrivalPos="49.36" arrivalSpeed="12.23" duration="59.00" routeLength="489.80" waitingTime="0.00" waitingCount="0" stopTime="0.00" timeLoss="16.14" rerouteNo="1" devices="tripinfo_veh6 routing_veh6" vType="veh_passenger" speedFactor="0.94" vaporized=""/>
    <tripinfo id="veh6.1" depart="38.00" departLane="-295320415#0_0" departPos="5.10" departSpeed="0.00" departDelay="3.00" arrival="96.00" arrivalLane="149812836#0_0" arrivalPos="49.36" arrivalSpeed="15.79" duration="58.00" routeLength="489.80" waitingTime="0.00" waitingCount="0" stopTime="0.00" timeLoss="22.84" rerouteNo="1" devices="tripinfo_veh6.1 routing_veh6.1" vType="veh_passenger" speedFactor="1.16" vaporized=""/>
    <tripinfo id="veh6.2" depart="41.00" departLane="-295320415#0_0" departPos="5.10" departSpeed="0.00" departDelay="6.00" arrival="99.00" arrivalLane="149812836#0_0" arrivalPos="49.36" arrivalSpeed="14.07" duration="58.00" routeLength="489.80" waitingTime="0.00" waitingCount="0" stopTime="0.00" timeLoss="17.98" rerouteNo="1" devices="tripinfo_veh6.2 routing_veh6.2" vType="veh_passenger" speedFactor="1.02" vaporized=""/>
    <tripinfo id="veh6.3" depart="44.00" departLane="-295320415#0_0" departPos="5.10" departSpeed="0.00" departDelay="9.00" arrival="101.00" arrivalLane="149812836#0_0" arrivalPos="49.36" arrivalSpeed="13.71" duration="57.00" routeLength="489.80" waitingTime="0.00" waitingCount="0" stopTime="0.00" timeLoss="18.00" rerouteNo="1" devices="tripinfo_veh6.3 routing_veh6.3" vType="veh_passenger" speedFactor="1.01" vaporized=""/>
    <tripinfo id="veh4" depart="24.00" departLane="-295320396_0" departPos="5.10" departSpeed="0.00" departDelay="0.67" arrival="105.00" arrivalLane="147036318#0_0" arrivalPos="24.62" arrivalSpeed="12.82" duration="81.00" routeLength="474.80" waitingTime="20.00" waitingCount="1" stopTime="0.00" timeLoss="46.14" rerouteNo="1" devices="tripinfo_veh4 routing_veh4" vType="veh_passenger" speedFactor="1.09" vaporized=""/>
    <tripinfo id="veh3.1" depart="21.00" departLane="-726776557#2_0" departPos="5.10" departSpeed="0.00" departDelay="3.50" arrival="117.00" arrivalLane="-147036288#0_0" arrivalPos="28.24" arrivalSpeed="9.87" duration="96.00" routeLength="869.14" waitingTime="0.00" waitingCount="0" stopTime="0.00" timeLoss="21.93" rerouteNo="1" devices="tripinfo_veh3.1 routing_veh3.1" vType="veh_passenger" speedFactor="0.89" vaporized=""/>
    <tripinfo id="veh4.1" depart="27.00" departLane="-295320396_0" departPos="5.10" departSpeed="0.00" departDelay="3.67" arrival="118.00" arrivalLane="147036318#0_0" arrivalPos="24.62" arrivalSpeed="12.15" duration="91.00" routeLength="474.80" waitingTime="25.00" waitingCount="2" stopTime="0.00" timeLoss="54.33" rerouteNo="1" devices="tripinfo_veh4.1 routing_veh4.1" vType="veh_passenger" speedFactor="1.03" vaporized=""/>
    <tripinfo id="veh12" depart="70.00" departLane="147036323#4_0" departPos="5.10" departSpeed="0.00" departDelay="0.00" arrival="119.00" arrivalLane="829706781#4_0" arrivalPos="64.58" arrivalSpeed="16.46" duration="49.00" routeLength="459.95" waitingTime="0.00" waitingCount="0" stopTime="0.00" timeLoss="15.34" rerouteNo="1" devices="tripinfo_veh12 routing_veh12" vType="veh_passenger" speedFactor="1.09" vaporized=""/>
    <tripinfo id="veh4.2" depart="30.00" departLane="-295320396_0" departPos="5.10" departSpeed="0.00" departDelay="6.67" arrival="123.00" arrivalLane="147036318#0_0" arrivalPos="24.62" arrivalSpeed="12.71" duration="93.00" routeLength="474.80" waitingTime="20.00" waitingCount="2" stopTime="0.00" timeLoss="56.93" rerouteNo="1" devices="tripinfo_veh4.2 routing_veh4.2" vType="veh_passenger" speedFactor="1.05" vaporized=""/>
    <tripinfo id="veh4.3" depart="33.00" departLane="-295320396_0" departPos="5.10" departSpeed="0.00" departDelay="9.67" arrival="126.00" arrivalLane="147036318#0_0" arrivalPos="24.62" arrivalSpeed="12.22" duration="93.00" routeLength="474.80" waitingTime="18.00" waitingCount="2" stopTime="0.00" timeLoss="59.43" rerouteNo="1" devices="tripinfo_veh4.3 routing_veh4.3" vType="veh_passenger" speedFactor="1.12" vaporized=""/>
    <tripinfo id="veh12.1" depart="73.00" departLane="147036323#4_0" departPos="5.10" departSpeed="0.00" departDelay="3.00" arrival="126.00" arrivalLane="829706781#4_0" arrivalPos="64.58" arrivalSpeed="16.93" duration="53.00" routeLength="459.95" waitingTime="0.00" waitingCount="0" stopTime="0.00" timeLoss="16.32" rerouteNo="1" devices="tripinfo_veh12.1 routing_veh12.1" vType="veh_passenger" speedFactor="1.04" vaporized=""/>
    <tripinfo id="veh12.2" depart="76.00" departLane="147036323#4_0" departPos="5.10" departSpeed="0.00" departDelay="6.00" arrival="131.00" arrivalLane="829706781#4_0" arrivalPos="64.58" arrivalSpeed="16.25" duration="55.00" routeLength="459.95" waitingTime="0.00" waitingCount="0" stopTime="0.00" timeLoss="19.73" rerouteNo="1" devices="tripinfo_veh12.2 routing_veh12.2" vType="veh_passenger" speedFactor="1.04" vaporized=""/>
    <tripinfo id="veh8" depart="47.00" departLane="-605381092#2_0" departPos="5.10" departSpeed="0.00" departDelay="0.34" arrival="137.00" arrivalLane="-288826029#2_0" arrivalPos="47.96" arrivalSpeed="12.62" duration="90.00" routeLength="747.94" waitingTime="5.00" waitingCount="1" stopTime="0.00" timeLoss="27.63" rerouteNo="1" devices="tripinfo_veh8 routing_veh8" vType="veh_passenger" speedFactor="0.92" vaporized=""/>
    <tripinfo id="veh12.3" depart="79.00" departLane="147036323#4_0" departPos="5.10" departSpeed="0.00" departDelay="9.00" arrival="137.00" arrivalLane="829706781#4_0" arrivalPos="64.58" arrivalSpeed="17.10" duration="58.00" routeLength="459.95" waitingTime="0.00" waitingCount="0" stopTime="0.00" timeLoss="23.13" rerouteNo="1" devices="tripinfo_veh12.3 routing_veh12.3" vType="veh_passenger" speedFactor="1.09" vaporized=""/>
    <tripinfo id="veh8.1" depart="50.00" departLane="-605381092#2_0" departPos="5.10" departSpeed="0.00" departDelay="3.34" arrival="143.00" arrivalLane="-288826029#2_0" arrivalPos="47.96" arrivalSpeed="12.36" duration="93.00" routeLength="747.94" waitingTime="3.00" waitingCount="1" stopTime="0.00" timeLoss="32.31" rerouteNo="1" devices="tripinfo_veh8.1 routing_veh8.1" vType="veh_passenger" speedFactor="0.95" vaporized=""/>
    <tripinfo id="veh8.2" depart="53.00" departLane="-605381092#2_0" departPos="5.10" departSpeed="0.00" departDelay="6.34" arrival="144.00" arrivalLane="-288826029#2_0" arrivalPos="47.96" arrivalSpeed="15.07" duration="91.00" routeLength="747.94" waitingTime="5.00" waitingCount="1" stopTime="0.00" timeLoss="40.00" rerouteNo="1" devices="tripinfo_veh8.2 routing_veh8.2" vType="veh_passenger" speedFactor="1.13" vaporized=""/>
    <tripinfo id="veh3.2" depart="24.00" departLane="-726776557#2_0" departPos="5.10" departSpeed="0.00" departDelay="6.50" arrival="145.00" arrivalLane="-147036288#0_0" arrivalPos="28.24" arrivalSpeed="10.75" duration="121.00" routeLength="869.14" waitingTime="12.00" waitingCount="2" stopTime="0.00" timeLoss="51.32" rerouteNo="1" devices="tripinfo_veh3.2 routing_veh3.2" vType="veh_passenger" speedFactor="0.94" vaporized=""/>
    <tripinfo id="veh3.3" depart="27.00" departLane="-726776557#2_0" departPos="5.10" departSpeed="0.00" departDelay="9.50" arrival="150.00" arrivalLane="-147036288#0_0" arrivalPos="28.24" arrivalSpeed="10.53" duration="123.00" routeLength="869.14" waitingTime="9.00" waitingCount="1" stopTime="0.00" timeLoss="46.17" rerouteNo="1" devices="tripinfo_veh3.3 routing_veh3.3" vType="veh_passenger" speedFactor="0.86" vaporized=""/>
    <tripinfo id="veh14" depart="82.00" departLane="637069772#0_0" departPos="5.10" departSpeed="14.25" departDelay="0.34" arrival="150.00" arrivalLane="149812812#5_0" arrivalPos="17.96" arrivalSpeed="11.19" duration="68.00" routeLength="782.04" waitingTime="0.00" waitingCount="0" stopTime="0.00" timeLoss="8.14" rerouteNo="1" devices="tripinfo_veh14 routing_veh14" vType="veh_passenger" speedFactor="0.85" vaporized=""/>
    <tripinfo id="veh14.1" depart="83.00" departLane="637069772#0_0" departPos="5.10" departSpeed="10.86" departDelay="1.34" arrival="152.00" arrivalLane="149812812#5_0" arrivalPos="17.96" arrivalSpeed="15.23" duration="69.00" routeLength="782.04" waitingTime="0.00" waitingCount="0" stopTime="0.00" timeLoss="24.63" rerouteNo="1" devices="tripinfo_veh14.1 routing_veh14.1" vType="veh_passenger" speedFactor="1.17" vaporized=""/>
    <tripinfo id="veh14.2" depart="84.00" departLane="637069772#0_0" departPos="5.10" departSpeed="7.98" departDelay="2.34" arrival="155.00" arrivalLane="149812812#5_0" arrivalPos="17.96" arrivalSpeed="13.71" duration="71.00" routeLength="782.04" waitingTime="0.00" waitingCount="0" stopTime="0.00" timeLoss="19.50" rerouteNo="1" devices="tripinfo_veh14.2 routing_veh14.2" vType="veh_passenger" speedFactor="1.02" vaporized=""/>
    <tripinfo id="veh7" depart="41.00" departLane="583971637#0_0" departPos="5.10" departSpeed="0.00" departDelay="0.17" arrival="158.00" arrivalLane="295320388#0_0" arrivalPos="28.91" arrivalSpeed="12.23" duration="117.00" routeLength="1238.08" waitingTime="0.00" waitingCount="0" stopTime="0.00" timeLoss="21.39" rerouteNo="1" devices="tripinfo_veh7 routing_veh7" vType="veh_passenger" speedFactor="0.97" vaporized=""/>
    <tripinfo id="veh8.3" depart="56.00" departLane="-605381092#2_0" departPos="5.10" departSpeed="0.00" departDelay="9.34" arrival="158.00" arrivalLane="-288826029#2_0" arrivalPos="47.96" arrivalSpeed="11.83" duration="102.00" routeLength="747.94" waitingTime="9.00" waitingCount="2" stopTime="0.00" timeLoss="40.52" rerouteNo="1" devices="tripinfo_veh8.3 routing_veh8.3" vType="veh_passenger" speedFactor="0.93" vaporized=""/>
    <tripinfo id="veh14.3" depart="86.00" departLane="637069772#0_0" departPos="5.10" departSpeed="8.32" departDelay="4.34" arrival="158.00" arrivalLane="149812812#5_0" arrivalPos="17.96" arrivalSpeed="15.05" duration="72.00" routeLength="782.04" waitingTime="0.00" waitingCount="0" stopTime="0.00" timeLoss="24.23" rerouteNo="1" devices="tripinfo_veh14.3 routing_veh14.3" vType="veh_passenger" speedFactor="1.10" vaporized=""/>
    <tripinfo id="veh13" depart="76.00" departLane="605336664#1_0" departPos="5.10" departSpeed="0.00" departDelay="0.17" arrival="165.00" arrivalLane="288825992#0_0" arrivalPos="0.13" arrivalSpeed="9.19" duration="89.00" routeLength="1172.53" waitingTime="0.00" waitingCount="0" stopTime="0.00" timeLoss="14.68" rerouteNo="1" devices="tripinfo_veh13 routing_veh13" vType="veh_passenger" speedFactor="1.00" vaporized=""/>
    <tripinfo id="veh5" depart="30.00" departLane="-147036281#1_0" departPos="5.10" departSpeed="0.00" departDelay="0.83" arrival="169.00" arrivalLane="-295320388#2_0" arrivalPos="43.26" arrivalSpeed="12.92" duration="139.00" routeLength="1085.21" waitingTime="11.00" waitingCount="2" stopTime="0.00" timeLoss="55.71" rerouteNo="1" devices="tripinfo_veh5 routing_veh5" vType="veh_passenger" speedFactor="0.99" vaporized=""/>
    <tripinfo id="veh7.1" depart="44.00" departLane="583971637#0_0" departPos="5.10" departSpeed="0.00" departDelay="3.17" arrival="170.00" arrivalLane="295320388#0_0" arrivalPos="28.91" arrivalSpeed="11.69" duration="126.00" routeLength="1238.08" waitingTime="0.00" waitingCount="0" stopTime="0.00" timeLoss="21.15" rerouteNo="1" devices="tripinfo_veh7.1 routing_veh7.1" vType="veh_passenger" speedFactor="0.89" vaporized=""/>
    <tripinfo id="veh17" depart="100.00" departLane="288826010#3_0" departPos="5.10" departSpeed="0.00" departDelay="0.84" arrival="170.00" arrivalLane="-725388155#4_0" arrivalPos="39.59" arrivalSpeed="13.67" duration="70.00" routeLength="508.90" waitingTime="9.00" waitingCount="1" stopTime="0.00" timeLoss="28.29" rerouteNo="1" devices="tripinfo_veh17 routing_veh17" vType="veh_passenger" speedFactor="1.02" vaporized=""/>
    <tripinfo id="veh9" depart="53.00" departLane="-147036320#4_0" departPos="5.10" departSpeed="0.00" departDelay="0.50" arrival="172.00" arrivalLane="-149812809#0_0" arrivalPos="4.82" arrivalSpeed="16.37" duration="119.00" routeLength="1351.89" waitingTime="0.00" waitingCount="0" stopTime="0.00" timeLoss="31.37" rerouteNo="1" devices="tripinfo_veh9 routing_veh9" vType="veh_passenger" speedFactor="1.18" vaporized=""/>
    <tripinfo id="veh5.1" depart="33.00" departLane="-147036281#1_0" departPos="5.10" departSpeed="0.00" departDelay="3.83" arrival="173.00" arrivalLane="-295320388#2_0" arrivalPos="43.26" arrivalSpeed="12.36" duration="140.00" routeLength="1085.21" waitingTime="8.00" waitingCount="1" stopTime="0.00" timeLoss="50.74" rerouteNo="1" devices="tripinfo_veh5.1 routing_veh5.1" vType="veh_passenger" speedFactor="0.93" vaporized=""/>
    <tripinfo id="veh17.1" depart="103.00" departLane="288826010#3_0" departPos="5.10" departSpeed="0.00" departDelay="3.84" arrival="174.00" arrivalLane="-725388155#4_0" arrivalPos="39.59" arrivalSpeed="13.34" duration="71.00" routeLength="508.90" waitingTime="6.00" waitingCount="1" stopTime="0.00" timeLoss="30.40" rerouteNo="1" devices="tripinfo_veh17.1 routing_veh17.1" vType="veh_passenger" speedFactor="0.99" vaporized=""/>
    <tripinfo id="veh13.1" depart="79.00" departLane="605336664#1_0" departPos="5.10" departSpeed="0.00" departDelay="3.17" arrival="176.00" arrivalLane="288825992#0_0" arrivalPos="0.13" arrivalSpeed="8.34" duration="97.00" routeLength="1172.53" waitingTime="0.00" waitingCount="0" stopTime="0.00" timeLoss="14.69" rerouteNo="1" devices="tripinfo_veh13.1 routing_veh13.1" vType="veh_passenger" speedFactor="0.90" vaporized=""/>
    <tripinfo id="veh5.2" depart="36.00" departLane="-147036281#1_0" departPos="5.10" departSpeed="0.00" departDelay="6.83" arrival="177.00" arrivalLane="-295320388#2_0" arrivalPos="43.26" arrivalSpeed="11.36" duration="141.00" routeLength="1085.21" waitingTime="5.00" waitingCount="1" stopTime="0.00" timeLoss="45.46" rerouteNo="1" devices="tripinfo_veh5.2 routing_veh5.2" vType="veh_passenger" speedFactor="0.88" vaporized=""/>
    <tripinfo id="veh3" depart="18.00" departLane="-726776557#2_0" departPos="5.10" departSpeed="0.00" departDelay="0.50" arrival="180.00" arrivalLane="-147036288#0_0" arrivalPos="28.24" arrivalSpeed="12.56" duration="162.00" routeLength="1119.98" waitingTime="55.00" waitingCount="2" stopTime="0.00" timeLoss="85.59" rerouteNo="1" devices="tripinfo_veh3 routing_veh3" vType="veh_passenger" speedFactor="1.05" vaporized=""/>
    <tripinfo id="veh13.2" depart="82.00" departLane="605336664#1_0" departPos="5.10" departSpeed="0.00" departDelay="6.17" arrival="181.00" arrivalLane="288825992#0_0" arrivalPos="0.13" arrivalSpeed="8.42" duration="99.00" routeLength="1172.53" waitingTime="0.00" waitingCount="0" stopTime="0.00" timeLoss="14.45" rerouteNo="1" devices="tripinfo_veh13.2 routing_veh13.2" vType="veh_passenger" speedFactor="0.88" vaporized=""/>
    <tripinfo id="veh7.2" depart="47.00" departLane="583971637#0_0" departPos="5.10" departSpeed="0.00" departDelay="6.17" arrival="182.00" arrivalLane="295320388#0_0" arrivalPos="28.91" arrivalSpeed="10.67" duration="135.00" routeLength="1238.08" waitingTime="0.00" waitingCount="0" stopTime="0.00" timeLoss="21.82" rerouteNo="1" devices="tripinfo_veh7.2 routing_veh7.2" vType="veh_passenger" speedFactor="0.83" vaporized=""/>
    <tripinfo id="veh7.3" depart="50.00" departLane="583971637#0_0" departPos="5.10" departSpeed="0.00" departDelay="9.17" arrival="184.00" arrivalLane="295320388#0_0" arrivalPos="28.91" arrivalSpeed="11.16" duration="134.00" routeLength="1238.08" waitingTime="0.00" waitingCount="0" stopTime="0.00" timeLoss="26.72" rerouteNo="1" devices="tripinfo_veh7.3 routing_veh7.3" vType="veh_passenger" speedFactor="0.87" vaporized=""/>
    <tripinfo id="veh17.2" depart="106.00" departLane="288826010#3_0" departPos="5.10" departSpeed="0.00" departDelay="6.84" arrival="184.00" arrivalLane="-725388155#4_0" arrivalPos="39.59" arrivalSpeed="13.02" duration="78.00" routeLength="508.90" waitingTime="10.00" waitingCount="2" stopTime="0.00" timeLoss="34.70" rerouteNo="1" devices="tripinfo_veh17.2 routing_veh17.2" vType="veh_passenger" speedFactor="0.94" vaporized=""/>
    <tripinfo id="veh13.3" depart="85.00" departLane="605336664#1_0" departPos="5.10" departSpeed="0.00" departDelay="9.17" arrival="187.00" arrivalLane="288825992#0_0" arrivalPos="0.13" arrivalSpeed="7.98" duration="102.00" routeLength="1172.53" waitingTime="0.00" waitingCount="0" stopTime="0.00" timeLoss="13.67" rerouteNo="1" devices="tripinfo_veh13.3 routing_veh13.3" vType="veh_passenger" speedFactor="0.85" vaporized=""/>
    <tripinfo id="veh9.1" depart="56.00" departLane="-147036320#4_0" departPos="5.10" departSpeed="0.00" departDelay="3.50" arrival="195.00" arrivalLane="-149812809#0_0" arrivalPos="4.82" arrivalSpeed="15.31" duration="139.00" routeLength="1351.89" waitingTime="11.00" waitingCount="1" stopTime="0.00" timeLoss="49.20" rerouteNo="1" devices="tripinfo_veh9.1 routing_veh9.1" vType="veh_passenger" speedFactor="1.15" vaporized=""/>
    <tripinfo id="veh11" depart="67.00" departLane="583971637#1_0" departPos="5.10" departSpeed="0.00" departDelay="2.84" arrival="197.00" arrivalLane="331335305#11_1" arrivalPos="37.27" arrivalSpeed="18.07" duration="130.00" routeLength="1300.92" waitingTime="33.00" waitingCount="1" stopTime="0.00" timeLoss="52.10" rerouteNo="1" devices="tripinfo_veh11 routing_veh11" vType="veh_passenger" speedFactor="1.10" vaporized=""/>
    <tripinfo id="veh17.3" depart="109.00" departLane="288826010#3_0" departPos="5.10" departSpeed="0.00" departDelay="9.84" arrival="198.00" arrivalLane="-725388155#4_0" arrivalPos="39.59" arrivalSpeed="11.95" duration="89.00" routeLength="508.90" waitingTime="14.00" waitingCount="3" stopTime="0.00" timeLoss="42.44" rerouteNo="1" devices="tripinfo_veh17.3 routing_veh17.3" vType="veh_passenger" speedFactor="0.88" vaporized=""/>
    <tripinfo id="veh9.2" depart="59.00" departLane="-147036320#4_0" departPos="5.10" departSpeed="0.00" departDelay="6.50" arrival="202.00" arrivalLane="-149812809#0_0" arrivalPos="4.82" arrivalSpeed="7.73" duration="143.00" routeLength="1351.89" waitingTime="7.00" waitingCount="1" stopTime="0.00" timeLoss="41.28" rerouteNo="1" devices="tripinfo_veh9.2 routing_veh9.2" vType="veh_passenger" speedFactor="1.01" vaporized=""/>
    <tripinfo id="veh9.3" depart="62.00" departLane="-147036320#4_0" departPos="5.10" departSpeed="0.00" departDelay="9.50" arrival="204.00" arrivalLane="-149812809#0_0" arrivalPos="4.82" arrivalSpeed="9.38" duration="142.00" routeLength="1351.89" waitingTime="6.00" waitingCount="1" stopTime="0.00" timeLoss="53.76" rerouteNo="1" devices="tripinfo_veh9.3 routing_veh9.3" vType="veh_passenger" speedFactor="1.17" vaporized=""/>
    <tripinfo id="veh24" depart="140.00" departLane="605381092#2_0" departPos="5.10" departSpeed="0.00" departDelay="0.01" arrival="204.00" arrivalLane="583751429#1_0" arrivalPos="57.83" arrivalSpeed="13.11" duration="64.00" routeLength="605.83" waitingTime="0.00" waitingCount="0" stopTime="0.00" timeLoss="17.67" rerouteNo="1" devices="tripinfo_veh24 routing_veh24" vType="veh_passenger" speedFactor="1.02" vaporized=""/>
    <tripinfo id="veh16" depart="94.00" departLane="-147036318#1_0" departPos="5.10" departSpeed="0.00" departDelay="0.67" arrival="205.00" arrivalLane="-361916856#0_0" arrivalPos="22.01" arrivalSpeed="13.52" duration="111.00" routeLength="1329.61" waitingTime="6.00" waitingCount="1" stopTime="0.00" timeLoss="23.45" rerouteNo="1" devices="tripinfo_veh16 routing_veh16" vType="veh_passenger" speedFactor="1.02" vaporized=""/>
    <tripinfo id="veh11.2" depart="73.00" departLane="583971637#1_0" departPos="5.10" departSpeed="0.00" departDelay="8.84" arrival="206.00" arrivalLane="331335305#11_1" arrivalPos="37.27" arrivalSpeed="16.75" duration="133.00" routeLength="1300.92" waitingTime="23.00" waitingCount="1" stopTime="0.00" timeLoss="48.45" rerouteNo="1" devices="tripinfo_veh11.2 routing_veh11.2" vType="veh_passenger" speedFactor="1.03" vaporized=""/>
    <tripinfo id="veh11.1" depart="70.00" departLane="583971637#1_0" departPos="5.10" departSpeed="0.00" departDelay="5.84" arrival="209.00" arrivalLane="331335305#11_0" arrivalPos="37.27" arrivalSpeed="13.84" duration="139.00" routeLength="1300.92" waitingTime="24.00" waitingCount="1" stopTime="0.00" timeLoss="43.28" rerouteNo="1" devices="tripinfo_veh11.1 routing_veh11.1" vType="veh_passenger" speedFactor="0.90" vaporized=""/>
    <tripinfo id="veh11.3" depart="76.00" departLane="583971637#1_0" departPos="5.10" departSpeed="0.00" departDelay="11.84" arrival="211.00" arrivalLane="331335305#11_0" arrivalPos="37.27" arrivalSpeed="14.79" duration="135.00" routeLength="1300.92" waitingTime="22.00" waitingCount="1" stopTime="0.00" timeLoss="45.10" rerouteNo="1" devices="tripinfo_veh11.3 routing_veh11.3" vType="veh_passenger" speedFactor="0.96" vaporized=""/>
    <tripinfo id="veh16.1" depart="97.00" departLane="-147036318#1_0" departPos="5.10" departSpeed="0.00" departDelay="3.67" arrival="211.00" arrivalLane="-361916856#0_0" arrivalPos="22.01" arrivalSpeed="12.67" duration="114.00" routeLength="1329.61" waitingTime="3.00" waitingCount="1" stopTime="0.00" timeLoss="22.62" rerouteNo="1" devices="tripinfo_veh16.1 routing_veh16.1" vType="veh_passenger" speedFactor="0.97" vaporized=""/>
    <tripinfo id="veh20" depart="117.00" departLane="-288826030#1_0" departPos="5.10" departSpeed="0.00" departDelay="0.34" arrival="215.00" arrivalLane="331335305#11_0" arrivalPos="37.27" arrivalSpeed="14.88" duration="98.00" routeLength="1030.79" waitingTime="5.00" waitingCount="1" stopTime="0.00" timeLoss="22.74" rerouteNo="1" devices="tripinfo_veh20 routing_veh20" vType="veh_passenger" speedFactor="0.96" vaporized=""/>
    <tripinfo id="veh24.1" depart="143.00" departLane="605381092#2_0" departPos="5.10" departSpeed="0.00" departDelay="3.01" arrival="217.00" arrivalLane="583751429#1_0" arrivalPos="57.83" arrivalSpeed="11.39" duration="74.00" routeLength="605.83" waitingTime="2.00" waitingCount="1" stopTime="0.00" timeLoss="21.65" rerouteNo="1" devices="tripinfo_veh24.1 routing_veh24.1" vType="veh_passenger" speedFactor="0.89" vaporized=""/>
    <tripinfo id="veh20.1" depart="120.00" departLane="-288826030#1_0" departPos="5.10" departSpeed="0.00" departDelay="3.34" arrival="218.00" arrivalLane="331335305#11_0" arrivalPos="37.27" arrivalSpeed="16.04" duration="98.00" routeLength="1030.79" waitingTime="4.00" waitingCount="1" stopTime="0.00" timeLoss="25.45" rerouteNo="1" devices="tripinfo_veh20.1 routing_veh20.1" vType="veh_passenger" speedFactor="0.98" vaporized=""/>
    <tripinfo id="veh18" depart="105.00" departLane="-725388155#2_0" departPos="5.10" departSpeed="0.00" departDelay="0.00" arrival="220.00" arrivalLane="-295320427#0_0" arrivalPos="72.87" arrivalSpeed="11.82" duration="115.00" routeLength="622.71" waitingTime="43.00" waitingCount="1" stopTime="0.00" timeLoss="62.25" rerouteNo="1" devices="tripinfo_veh18 routing_veh18" vType="veh_passenger" speedFactor="0.91" vaporized=""/>
    <tripinfo id="veh20.2" depart="123.00" departLane="-288826030#1_0" departPos="5.10" departSpeed="0.00" departDelay="6.34" arrival="220.00" arrivalLane="331335305#11_0" arrivalPos="37.27" arrivalSpeed="16.93" duration="97.00" routeLength="1030.79" waitingTime="4.00" waitingCount="1" stopTime="0.00" timeLoss="27.34" rerouteNo="1" devices="tripinfo_veh20.2 routing_veh20.2" vType="veh_passenger" speedFactor="1.03" vaporized=""/>
    <tripinfo id="veh18.1" depart="108.00" departLane="-725388155#2_0" departPos="5.10" departSpeed="0.00" departDelay="3.00" arrival="222.00" arrivalLane="-295320427#0_0" arrivalPos="72.87" arrivalSpeed="12.15" duration="114.00" routeLength="622.71" waitingTime="41.00" waitingCount="1" stopTime="0.00" timeLoss="60.99" rerouteNo="1" devices="tripinfo_veh18.1 routing_veh18.1" vType="veh_passenger" speedFactor="0.91" vaporized=""/>
    <tripinfo id="veh18.2" depart="111.00" departLane="-725388155#2_0" departPos="5.10" departSpeed="0.00" departDelay="6.00" arrival="223.00" arrivalLane="-295320427#0_0" arrivalPos="72.87" arrivalSpeed="14.05" duration="112.00" routeLength="622.71" waitingTime="39.00" waitingCount="1" stopTime="0.00" timeLoss="65.82" rerouteNo="1" devices="tripinfo_veh18.2 routing_veh18.2" vType="veh_passenger" speedFactor="1.04" vaporized=""/>
    <tripinfo id="veh20.3" depart="126.00" departLane="-288826030#1_0" departPos="5.10" departSpeed="0.00" departDelay="9.34" arrival="224.00" arrivalLane="331335305#11_0" arrivalPos="37.27" arrivalSpeed="16.28" duration="98.00" routeLength="1030.79" waitingTime="3.00" waitingCount="1" stopTime="0.00" timeLoss="24.31" rerouteNo="1" devices="tripinfo_veh20.3 routing_veh20.3" vType="veh_passenger" speedFactor="0.98" vaporized=""/>
    <tripinfo id="veh18.3" depart="115.00" departLane="-725388155#2_0" departPos="5.10" departSpeed="0.00" departDelay="10.00" arrival="225.00" arrivalLane="-295320427#0_0" arrivalPos="72.87" arrivalSpeed="13.46" duration="110.00" routeLength="622.71" waitingTime="38.00" waitingCount="1" stopTime="0.00" timeLoss="62.86" rerouteNo="1" devices="tripinfo_veh18.3 routing_veh18.3" vType="veh_passenger" speedFactor="1.02" vaporized=""/>
    <tripinfo id="veh24.2" depart="146.00" departLane="605381092#2_0" departPos="5.10" departSpeed="0.00" departDelay="6.01" arrival="227.00" arrivalLane="583751429#1_0" arrivalPos="57.83" arrivalSpeed="10.93" duration="81.00" routeLength="605.83" waitingTime="0.00" waitingCount="0" stopTime="0.00" timeLoss="24.40" rerouteNo="1" devices="tripinfo_veh24.2 routing_veh24.2" vType="veh_passenger" speedFactor="0.83" vaporized=""/>
    <tripinfo id="veh24.3" depart="153.00" departLane="605381092#2_0" departPos="5.10" departSpeed="0.00" departDelay="13.01" arrival="229.00" arrivalLane="583751429#1_0" arrivalPos="57.83" arrivalSpeed="12.38" duration="76.00" routeLength="605.83" waitingTime="0.00" waitingCount="0" stopTime="0.00" timeLoss="25.01" rerouteNo="1" devices="tripinfo_veh24.3 routing_veh24.3" vType="veh_passenger" speedFactor="0.92" vaporized=""/>
    <tripinfo id="veh23" depart="135.00" departLane="147612138#2_0" departPos="0.20" departSpeed="0.00" departDelay="0.84" arrival="236.00" arrivalLane="288826044#1_0" arrivalPos="164.89" arrivalSpeed="13.15" duration="101.00" routeLength="1417.86" waitingTime="0.00" waitingCount="0" stopTime="0.00" timeLoss="15.13" rerouteNo="1" devices="tripinfo_veh23 routing_veh23" vType="veh_passenger" speedFactor="1.00" vaporized=""/>